# vtk DataFile Version 3.0
vtk output
ASCII
DATASET UNSTRUCTURED_GRID
FIELD FieldData 2
Element_Set_Names 1 1 string
Initial_Elements

Proximity_Tolerance 1 1 float
0 
POINTS 12 float
47.6257 52.6069 11.7981 48.1156 55.2175 25.907 66.201 59.24 25.3774 
66.3801 56.4927 10.7982 42.8876 92.8653 8.0107 43.9114 95.2751 16.6809 
55.2656 97.668 15.3572 54.537 95.7233 7.30392 47.5953 76.6991 14.0428 
48.0276 78.2972 21.4607 58.0235 80.144 20.6416 58.1615 78.7232 12.8813 

CELLS 2 18
8 0 1 2 3 8 9 10 11 
8 8 9 10 11 4 5 6 7 

CELL_TYPES 2
12
12

CELL_DATA 2
SCALARS mimxCellScalars int
LOOKUP_TABLE default
0 1 
VECTORS vectors int
10 24 8 10 20 8 
FIELD FieldData 2
Initial_Elements 1 2 int
1 1 
Mesh_Seed 3 2 int
10 24 8 10 20 8 
POINT_DATA 12
SCALARS mimxPointScalars int
LOOKUP_TABLE default
0 1 2 3 4 5 6 7 8 
9 10 11 
