# vtk DataFile Version 3.0
vtk output
ASCII
DATASET UNSTRUCTURED_GRID
POINTS 52 float
55.2786 75.7298 8.15437 54.0312 75.2729 15.6762 65.6223 75.2045 17.6257 
67.7111 74.6613 10.3406 58.5216 109.169 4.72127 58.7835 111.32 12.2877 
67.1589 110.117 11.8365 68.4134 108.67 6.30752 57.7389 102.765 7.28694 
56.9335 104.044 13.6712 66.0137 103.065 15.1852 67.7155 101.683 8.96839 
56.5455 82.5136 8.70653 54.6637 83.325 17.7683 64.5101 82.4633 19.8337 
66.497 82.1202 11.1262 54.4435 79.1881 6.02961 52.643 79.9882 17.3535 
66.4152 78.9658 20.446 69.3481 78.4948 9.81498 57.9826 76.459 10.6672 
57.3589 76.2305 14.4282 63.1545 76.1963 15.4029 64.1989 75.9247 11.7604 
57.5651 78.1881 9.60487 56.6648 78.5882 15.2668 63.5509 78.077 16.8131 
65.0174 77.8415 11.4976 57.5384 80.0352 9.95723 56.6381 80.4353 15.6192 
63.5242 79.9241 17.1654 64.9907 79.6886 11.8499 58.5894 81.698 11.2957 
57.6485 82.1037 15.8266 62.5717 81.6728 16.8593 63.5651 81.5013 12.5055 
58.9364 87.6305 10.7624 57.9955 88.0362 15.2933 62.9187 87.6053 16.326 
63.9121 87.4338 11.9723 59.5331 97.7562 10.0526 59.1304 98.3957 13.2448 
63.6705 97.9062 14.0018 64.5214 97.2152 10.8933 60.1994 104.56 8.66002 
59.7967 105.199 11.8521 64.3368 104.71 12.6091 65.1877 104.019 9.50074 
60.5907 107.762 7.37718 60.7217 108.837 11.1604 64.9094 108.236 10.9348 
65.5366 107.512 8.17031 
CELLS 28 252
8 0 1 21 20 16 17 25 24 
8 23 22 2 3 27 26 18 19 
8 0 20 23 3 16 24 27 19 
8 21 1 2 22 25 17 18 26 
8 0 1 2 3 20 21 22 23 
8 24 25 26 27 16 17 18 19 
8 20 21 22 23 24 25 26 27 
8 16 17 29 28 12 13 33 32 
8 31 30 18 19 35 34 14 15 
8 16 28 31 19 12 32 35 15 
8 29 17 18 30 33 13 14 34 
8 16 17 18 19 28 29 30 31 
8 32 33 34 35 12 13 14 15 
8 28 29 30 31 32 33 34 35 
8 12 13 37 36 8 9 41 40 
8 39 38 14 15 43 42 10 11 
8 12 36 39 15 8 40 43 11 
8 37 13 14 38 41 9 10 42 
8 12 13 14 15 36 37 38 39 
8 40 41 42 43 8 9 10 11 
8 36 37 38 39 40 41 42 43 
8 8 9 45 44 4 5 49 48 
8 47 46 10 11 51 50 6 7 
8 8 44 47 11 4 48 51 7 
8 45 9 10 46 49 5 6 50 
8 8 9 10 11 44 45 46 47 
8 48 49 50 51 4 5 6 7 
8 44 45 46 47 48 49 50 51 

CELL_TYPES 28
12
12
12
12
12
12
12
12
12
12
12
12
12
12
12
12
12
12
12
12
12
12
12
12
12
12
12
12

CELL_DATA 28
FIELD FieldData 1
Mesh_Seed 3 28 int
5 4 8 5 4 8 11 4 5 
11 4 5 11 5 8 11 5 8 
11 4 8 5 4 8 5 4 8 
11 4 5 11 4 5 11 5 8 
11 5 8 11 4 8 7 16 8 
7 16 8 11 16 7 11 16 7 
11 7 8 11 7 8 11 16 8 
4 6 8 4 6 8 11 6 4 
11 6 4 11 4 8 11 4 8 
11 6 8 
