# vtk DataFile Version 3.0
vtk output
ASCII
DATASET UNSTRUCTURED_GRID
FIELD FieldData 2
Element_Set_Names 1 1 string
Initial_Elements

Proximity_Tolerance 1 1 float
0 
POINTS 20 float
-14.2627 2.50395 13.4795 -9.87855 -5.11947 37.4126 6.10962 -5.11947 37.4126 
1.72544 2.50395 13.4795 -14.2627 20.0248 13.4795 -9.87855 12.4014 37.4126 
6.10962 12.4014 37.4126 1.72544 20.0248 13.4795 -6.26865 2.50395 13.4795 
-6.26865 20.0248 13.4795 -1.88446 12.4014 37.4126 -1.88446 -5.11947 37.4126 
-4.95161 -2.71916 -1.33032 -4.95161 14.8017 -1.33032 3.04247 14.8017 -1.33032 
3.04247 -2.71916 -1.33032 -13.541 -2.7836 -1.13372 -13.541 14.7373 -1.13372 
-5.5469 14.7373 -1.13372 -5.5469 -2.7836 -1.13372 
CELLS 4 36
8 0 1 11 8 4 5 10 9 
8 8 11 2 3 9 10 6 7 
8 8 9 7 3 12 13 14 15 
8 0 4 9 8 16 17 18 19 

CELL_TYPES 4
12
12
12
12

CELL_DATA 4
SCALARS mimxCellScalars int
LOOKUP_TABLE default
0 1 2 3 
FIELD FieldData 2
Initial_Elements 1 4 int
1 1 1 1 
Mesh_Seed 3 4 int
8 18 38 8 18 38 8 2 18 
8 2 18 
POINT_DATA 20
SCALARS mimxPointScalars int
LOOKUP_TABLE default
0 1 2 3 4 5 6 7 8 
9 10 11 12 13 14 15 16 17 
18 19 
