# vtk DataFile Version 3.0
vtk output
ASCII
DATASET UNSTRUCTURED_GRID
POINTS 12 float
28.6322 29.9011 12.5686 27.47 29.8514 14.257 30.5723 30.8571 16.2153 
32.9697 30.0322 15.0338 28.4034 33.9114 12.9476 27.2322 32.81 14.7906 
31.5205 33.8883 16.5569 32.6068 33.8388 15.8857 25.2894 29.4869 18.6752 
28.3917 30.4926 20.6335 29.3399 33.5238 20.9751 25.0516 32.4455 19.2088 

CELLS 2 18
8 0 1 2 3 4 5 6 7 
8 1 8 9 2 5 11 10 6 

CELL_TYPES 2
12
12

CELL_DATA 2
FIELD FieldData 1
Mesh_Seed 3 2 int
5 4 3 5 4 5 
