# vtk DataFile Version 3.0
vtk output
ASCII
DATASET UNSTRUCTURED_GRID
POINTS 36 float
56.2805 74.9326 7.13232 52.2193 75.7562 16.9906 66.2119 75.3587 19.9489 
68.9982 75.7874 9.43714 58.018 107.914 5.17423 57.9308 111.15 10.566 
67.168 111.759 12.1509 67.9223 108.85 6.29125 59.351 98.298 8.23704 
57.6236 101.582 13.1168 66.5162 100.722 15.4342 66.1425 99.7903 9.24956 
55.539 84.1285 9.99025 56.5147 84.5658 15.8629 65.371 82.8452 18.3014 
64.9057 84.7212 10.7463 54.2499 75.3444 12.0615 67.605 75.5731 14.693 
65.1384 83.7832 14.5238 56.0269 84.3472 12.9266 58.4873 99.94 10.6769 
66.3293 100.256 12.3419 67.5452 110.305 9.22108 57.9744 109.532 7.87012 
62.6394 75.36 8.28473 60.2224 84.4249 10.3683 60.5826 84.0652 13.7252 
60.9275 75.4587 13.3772 62.7467 99.0441 8.7433 62.9702 108.382 5.73274 
62.7598 109.918 8.5456 62.4083 100.098 11.5094 60.9429 83.7055 17.0821 
59.2156 75.5574 18.4697 62.5494 111.454 11.3584 62.0699 101.152 14.2755 

CELLS 12 108
8 0 16 27 24 12 19 26 25 
8 8 20 31 28 4 23 30 29 
8 12 19 26 25 8 20 31 28 
8 16 1 33 27 19 13 32 26 
8 20 9 35 31 23 5 34 30 
8 19 13 32 26 20 9 35 31 
8 24 27 17 3 25 26 18 15 
8 28 31 21 11 29 30 22 7 
8 25 26 18 15 28 31 21 11 
8 27 33 2 17 26 32 14 18 
8 31 35 10 21 30 34 6 22 
8 26 32 14 18 31 35 10 21 

CELL_TYPES 12
12
12
12
12
12
12
12
12
12
12
12
12

CELL_DATA 12
FIELD FieldData 1
Mesh_Seed 3 12 int
6 10 5 6 11 5 6 16 5 
6 10 5 6 11 5 6 16 5 
6 10 5 6 11 5 6 16 5 
6 10 5 6 11 5 6 16 5 

