# vtk DataFile Version 3.0
vtk output
ASCII
DATASET POLYDATA
POINTS 173 float
0 -18.814 16.5222 -0.454788 -18.6159 16.4601 -0.91301 -18.4245 16.4017 
-1.3848 -18.2631 16.3675 -1.86055 -18.1115 16.3411 -2.34639 -17.9945 16.3445 
-2.83501 -17.8892 16.3576 -3.3278 -17.8186 16.4014 -3.8214 -17.7596 16.4552 
-4.31323 -17.7321 16.5396 -4.80392 -17.7152 16.6341 -5.28822 -17.7333 16.7561 
-5.76991 -17.764 16.8866 -6.24431 -17.8234 17.033 -6.71088 -17.9126 17.189 
-7.16577 -18.0337 17.3573 -7.6172 -18.163 17.529 -8.06003 -18.3093 17.7092 
-8.50056 -18.46 17.8915 -8.9369 -18.6186 18.0771 -9.37071 -18.7843 18.2624 
-9.80374 -18.9524 18.4474 -10.2316 -19.1277 18.6376 -10.6572 -19.3059 18.8303 
-11.0685 -19.4992 19.0385 -11.4735 -19.6987 19.2533 -11.8636 -19.9123 19.4818 
-12.2385 -20.1419 19.72 -12.6065 -20.3801 19.9606 -12.9715 -20.6237 20.2002 
-13.34 -20.8659 20.436 -13.7095 -21.1066 20.6714 -14.0805 -21.3394 20.9126 
-14.4512 -21.5691 21.1572 -14.8181 -21.7908 21.4146 -15.1782 -21.9989 21.6919 
-15.5352 -22.2023 21.9768 -15.8842 -22.3959 22.278 -16.2388 -22.5859 22.575 
-16.6058 -22.7718 22.8591 -16.9898 -22.9518 23.1239 -17.3832 -23.1265 23.3781 
-17.7812 -23.298 23.6276 -18.1906 -23.4563 23.8668 -18.604 -23.6098 24.1026 
-19.0309 -23.7443 24.3251 -19.4667 -23.8675 24.5369 -19.9068 -23.9854 24.743 
-20.3535 -24.0943 24.9393 -20.8015 -24.2019 25.1336 -21.2539 -24.2999 25.3225 
-21.7083 -24.3941 25.5086 -22.1692 -24.47 25.6867 -22.6324 -24.5391 25.8618 
-23.1026 -24.5837 26.0255 -23.576 -24.6182 26.1829 0 -18.814 16.5222 
0.447639 -19.0257 16.5911 0.891579 -19.2441 16.6632 1.32789 -19.4758 16.7403 
1.7618 -19.7115 16.8186 2.18893 -19.958 16.901 2.61353 -20.2084 16.9848 
3.02854 -20.4731 17.0723 3.4399 -20.7429 17.1617 3.8462 -21.0191 17.2545 
4.2483 -21.2999 17.352 4.6493 -21.5818 17.4506 5.04703 -21.866 17.5555 
5.4419 -22.1517 17.6671 5.83514 -22.4384 17.7819 6.22219 -22.7295 17.9061 
6.6027 -23.0254 18.039 6.97366 -23.3286 18.1819 7.34132 -23.6344 18.3279 
7.70112 -23.9465 18.4799 8.04948 -24.2669 18.6412 8.39394 -24.5898 18.8057 
8.72922 -24.9185 18.9777 9.05527 -25.2483 19.1644 9.37777 -25.5785 19.3566 
9.68982 -25.9117 19.5606 9.9916 -26.2462 19.7775 10.2922 -26.5795 19.9978 
10.5893 -26.9122 20.2237 10.8867 -27.2414 20.4542 11.1856 -27.5686 20.6859 
11.4964 -27.8815 20.9212 11.8134 -28.1872 21.158 12.1491 -28.4736 21.393 
12.4902 -28.7545 21.6269 12.8397 -29.0253 21.8604 13.1976 -29.2851 22.0937 
13.5575 -29.5424 22.3266 13.9265 -29.7904 22.5551 14.3096 -30.0239 22.7756 
14.7006 -30.2495 22.9907 15.1217 -30.4426 23.1776 15.5545 -30.6237 23.3504 
16.0147 -30.7739 23.474 16.4892 -30.9059 23.5557 16.9706 -31.0283 23.6136 
17.4613 -31.117 23.5911 17.9525 -31.1965 23.5426 18.4353 -31.2387 23.4221 
18.9137 -31.2717 23.2805 19.3708 -31.2705 23.079 19.8204 -31.2614 22.8604 
20.2446 -31.225 22.5988 20.6605 -31.1814 22.3248 21.0596 -31.1204 22.0299 
21.4301 -31.0236 21.7087 21.7923 -30.9185 21.3804 22.139 -30.7955 21.0419 
22.4769 -30.6697 20.6955 22.8104 -30.5448 20.3445 23.1391 -30.4196 19.9892 
23.4489 -30.2917 19.6183 23.7506 -30.1645 19.2404 24.0314 -30.0197 18.853 
24.2991 -29.8688 18.4586 24.5602 -29.7169 18.0602 24.8029 -29.5625 17.6513 
25.0402 -29.4073 17.2395 25.2637 -29.2482 16.8215 25.4696 -29.0787 16.3985 
25.6725 -28.9051 15.9759 25.8762 -28.7121 15.5621 26.0778 -28.5012 15.1562 
26.2776 -28.2805 14.7545 26.4579 -28.024 14.3653 26.6303 -27.7564 13.9797 
26.7822 -27.4645 13.6033 26.9096 -27.1494 13.2367 27.024 -26.8251 12.8738 
27.1329 -26.4974 12.5122 27.2254 -26.1581 12.1569 27.3061 -25.8113 11.8059 
27.3811 -25.4617 11.4564 27.4471 -25.1048 11.1126 27.5129 -24.7457 10.7709 
27.5766 -24.3816 10.4342 27.6324 -24.0041 10.1113 27.6779 -23.6139 9.80214 
27.7173 -23.2174 9.50015 27.7154 -22.7994 9.22651 27.6977 -22.3757 8.96165 
27.6576 -21.9445 8.71176 27.615 -21.5107 8.4668 27.5707 -21.0752 8.22525 
27.5319 -20.6406 7.98108 27.4919 -20.206 7.73709 27.4452 -19.7752 7.48775 
27.3947 -19.3458 7.23648 27.3269 -18.9176 6.98755 27.2541 -18.489 6.74057 
27.1613 -18.0558 6.50879 27.0641 -17.6204 6.28298 26.9626 -17.1808 6.06749 
26.8455 -16.7376 5.86819 26.7208 -16.2934 5.67544 26.5641 -15.8511 5.50338 
26.3954 -15.4103 5.33825 26.1901 -14.9787 5.19165 25.9669 -14.5532 5.05394 
25.7333 -14.1313 4.92172 25.4954 -13.7114 4.79125 25.2562 -13.2922 4.66054 
25.0266 -12.8721 4.51661 24.8033 -12.4507 4.36639 24.6143 -12.0242 4.18715 
24.4357 -11.5966 3.99936 24.2956 -11.1664 3.78637 
LINES 2 175
56 0 1 2 3 4 5 6 7 8 9 10 11 12 13 14 15 16 17 18 19 20 21 22 23 24 25 26 27 28 29 30 31 32 33 34 35 36 37 38 39 40 41 42 43 44 45 46 47 48 49 50 51 52 53 54 55 
117 56 57 58 59 60 61 62 63 64 65 66 67 68 69 70 71 72 73 74 75 76 77 78 79 80 81 82 83 84 85 86 87 88 89 90 91 92 93 94 95 96 97 98 99 100 101 102 103 104 105 106 107 108 109 110 111 112 113 114 115 116 117 118 119 120 121 122 123 124 125 126 127 128 129 130 131 132 133 134 135 136 137 138 139 140 141 142 143 144 145 146 147 148 149 150 151 152 153 154 155 156 157 158 159 160 161 162 163 164 165 166 167 168 169 170 171 172 

CELL_DATA 2
POINT_DATA 173
TENSORS tensors float
0.00132382 -0.000474243 0.000137162 -0.000474243 0.000505613 -2.70877e-05 0.000137162 -2.70877e-05 0.000534692 
0.00136711 -0.000460834 0.000130973 -0.000460834 0.000469858 -9.7113e-06 0.000130973 -9.7113e-06 0.000516906 
0.00145107 -0.000430449 0.00010503 -0.000430449 0.000446498 1.49405e-05 0.00010503 1.49405e-05 0.000521359 
0.00153979 -0.000397728 7.45516e-05 -0.000397728 0.000428564 3.63615e-05 7.45516e-05 3.63615e-05 0.000535146 
0.00160085 -0.000343257 2.8979e-05 -0.000343257 0.000406762 4.93217e-05 2.8979e-05 4.93217e-05 0.000538073 
0.00164901 -0.000284387 -1.85524e-05 -0.000284387 0.000383512 5.96879e-05 -1.85524e-05 5.96879e-05 0.000539071 
0.00166451 -0.000220839 -6.95647e-05 -0.000220839 0.000362641 5.69125e-05 -6.95647e-05 5.69125e-05 0.000541034 
0.00166598 -0.000156881 -0.000120164 -0.000156881 0.000341022 4.77592e-05 -0.000120164 4.77592e-05 0.000543363 
0.00165253 -9.93235e-05 -0.00016717 -9.93235e-05 0.000332196 3.14258e-05 -0.00016717 3.14258e-05 0.000554103 
0.00163142 -4.45821e-05 -0.000212517 -4.45821e-05 0.000327622 1.02592e-05 -0.000212517 1.02592e-05 0.000568716 
0.00159786 1.18107e-05 -0.000248526 1.18107e-05 0.0003364 -1.42343e-05 -0.000248526 -1.42343e-05 0.000585409 
0.00155751 7.06233e-05 -0.000277289 7.06233e-05 0.000351689 -4.14998e-05 -0.000277289 -4.14998e-05 0.000603999 
0.0015131 0.000135182 -0.000300271 0.000135182 0.000366057 -7.22005e-05 -0.000300271 -7.22005e-05 0.000620149 
0.00147204 0.000202609 -0.000311531 0.000202609 0.000386129 -9.65897e-05 -0.000311531 -9.65897e-05 0.000628344 
0.00144405 0.000256724 -0.000324976 0.000256724 0.000403844 -0.000119449 -0.000324976 -0.000119449 0.000635965 
0.00143212 0.000298348 -0.000342396 0.000298348 0.000420878 -0.000139471 -0.000342396 -0.000139471 0.00064261 
0.00143049 0.000331564 -0.000361958 0.000331564 0.000443824 -0.000155 -0.000361958 -0.000155 0.000652303 
0.00145366 0.000359346 -0.000383781 0.000359346 0.000481114 -0.000168329 -0.000383781 -0.000168329 0.000668844 
0.00147785 0.000387326 -0.000406198 0.000387326 0.000517789 -0.000177795 -0.000406198 -0.000177795 0.000684487 
0.00148773 0.000393657 -0.000407515 0.000393657 0.000559685 -0.000178416 -0.000407515 -0.000178416 0.000697344 
0.00149106 0.000399496 -0.000405988 0.000399496 0.000592761 -0.000179448 -0.000405988 -0.000179448 0.000706493 
0.00146318 0.000392822 -0.000397725 0.000392822 0.000616248 -0.000181429 -0.000397725 -0.000181429 0.000714182 
0.00142155 0.000382403 -0.00038862 0.000382403 0.000641591 -0.000187747 -0.00038862 -0.000187747 0.000726069 
0.00136826 0.000374721 -0.000384114 0.000374721 0.000666559 -0.00020152 -0.000384114 -0.00020152 0.000738736 
0.00129888 0.000371356 -0.000386603 0.000371356 0.000691635 -0.000224449 -0.000386603 -0.000224449 0.000749514 
0.00122865 0.000372371 -0.000396227 0.000372371 0.00071918 -0.000247853 -0.000396227 -0.000247853 0.000756437 
0.00115179 0.000386909 -0.000407149 0.000386909 0.000732621 -0.00027302 -0.000407149 -0.00027302 0.000743467 
0.00112696 0.000405071 -0.000417517 0.000405071 0.000747355 -0.000285943 -0.000417517 -0.000285943 0.000740254 
0.00112126 0.000417046 -0.000419925 0.000417046 0.000759907 -0.000295501 -0.000419925 -0.000295501 0.000735368 
0.00112327 0.000410105 -0.000407227 0.000410105 0.000755081 -0.000292503 -0.000407227 -0.000292503 0.000721451 
0.00112085 0.000384108 -0.000389058 0.000384108 0.000748493 -0.000287221 -0.000389058 -0.000287221 0.000714502 
0.00111543 0.000348094 -0.000374362 0.000348094 0.000749193 -0.000277957 -0.000374362 -0.000277957 0.000717858 
0.00109705 0.000306901 -0.000364262 0.000306901 0.000749256 -0.000265302 -0.000364262 -0.000265302 0.000725855 
0.00106252 0.000261458 -0.000358224 0.000261458 0.000745635 -0.000253081 -0.000358224 -0.000253081 0.000743586 
0.00104124 0.000232648 -0.000359264 0.000232648 0.000739851 -0.000242266 -0.000359264 -0.000242266 0.000770667 
0.00102477 0.000209782 -0.00036174 0.000209782 0.000737157 -0.000234119 -0.00036174 -0.000234119 0.000812607 
0.00101527 0.000191727 -0.000363936 0.000191727 0.000735377 -0.000227909 -0.000363936 -0.000227909 0.000867479 
0.00104902 0.00019768 -0.000359787 0.00019768 0.000734851 -0.000225427 -0.000359787 -0.000225427 0.00088259 
0.00109215 0.000200933 -0.000352113 0.000200933 0.000735318 -0.000218962 -0.000352113 -0.000218962 0.000868066 
0.00113044 0.000200619 -0.000344621 0.000200619 0.000739427 -0.00021186 -0.000344621 -0.00021186 0.000848315 
0.00116588 0.000199923 -0.000339098 0.000199923 0.00074569 -0.000206998 -0.000339098 -0.000206998 0.000830779 
0.00119719 0.000193469 -0.00033506 0.000193469 0.000747989 -0.000201846 -0.00033506 -0.000201846 0.000817331 
0.00122111 0.000181808 -0.000326759 0.000181808 0.00074583 -0.000196897 -0.000326759 -0.000196897 0.000810847 
0.0012456 0.000167173 -0.000314538 0.000167173 0.000741924 -0.000192048 -0.000314538 -0.000192048 0.000810591 
0.00127074 0.00014948 -0.000297462 0.00014948 0.000729838 -0.000184993 -0.000297462 -0.000184993 0.000814606 
0.001293 0.000136373 -0.000273916 0.000136373 0.000714255 -0.00017932 -0.000273916 -0.00017932 0.000821 
0.00131815 0.000123934 -0.000252671 0.000123934 0.000699297 -0.000175749 -0.000252671 -0.000175749 0.000829599 
0.00132828 0.000115064 -0.000236997 0.000115064 0.000685671 -0.000174165 -0.000236997 -0.000174165 0.000832139 
0.00131803 0.000108733 -0.000223138 0.000108733 0.000678928 -0.000171066 -0.000223138 -0.000171066 0.000832007 
0.00130196 9.43723e-05 -0.000207851 9.43723e-05 0.000676285 -0.000169618 -0.000207851 -0.000169618 0.000831882 
0.00128431 7.60285e-05 -0.000188316 7.60285e-05 0.000677136 -0.000168702 -0.000188316 -0.000168702 0.000832104 
0.0012659 5.26625e-05 -0.000164923 5.26625e-05 0.000685207 -0.000166724 -0.000164923 -0.000166724 0.000844809 
0.0012463 2.72458e-05 -0.000137123 2.72458e-05 0.000704573 -0.000163738 -0.000137123 -0.000163738 0.000874796 
0.00122454 4.18621e-06 -0.000106728 4.18621e-06 0.000726131 -0.000160554 -0.000106728 -0.000160554 0.000915122 
0.00120214 -1.77416e-05 -7.41779e-05 -1.77416e-05 0.000747064 -0.000158192 -7.41779e-05 -0.000158192 0.000967825 
0.00117963 -3.58491e-05 -4.52391e-05 -3.58491e-05 0.000768105 -0.000157788 -4.52391e-05 -0.000157788 0.00101492 
0.00132382 -0.000474243 0.000137162 -0.000474243 0.000505613 -2.70877e-05 0.000137162 -2.70877e-05 0.000534692 
0.00127684 -0.000485409 0.000139114 -0.000485409 0.000538276 -4.12391e-05 0.000139114 -4.12391e-05 0.000556124 
0.00127772 -0.000493675 0.000142707 -0.000493675 0.000590915 -4.6828e-05 0.000142707 -4.6828e-05 0.000594337 
0.0012887 -0.000500668 0.000144942 -0.000500668 0.000649259 -4.87802e-05 0.000144942 -4.87802e-05 0.000637007 
0.00130477 -0.000505473 0.000143737 -0.000505473 0.00070027 -6.39499e-05 0.000143737 -6.39499e-05 0.000661395 
0.00131735 -0.000511339 0.00014275 -0.000511339 0.000751918 -8.37023e-05 0.00014275 -8.37023e-05 0.000673788 
0.00130974 -0.000515407 0.000140813 -0.000515407 0.000793609 -9.96848e-05 0.000140813 -9.96848e-05 0.000666677 
0.00126807 -0.000516754 0.000135934 -0.000516754 0.000808831 -0.000120344 0.000135934 -0.000120344 0.000647613 
0.00123051 -0.000511443 0.000132311 -0.000511443 0.000809419 -0.000139324 0.000132311 -0.000139324 0.000613913 
0.00119762 -0.000507552 0.0001324 -0.000507552 0.000796227 -0.000152414 0.0001324 -0.000152414 0.000586321 
0.00116882 -0.000505113 0.000132008 -0.000505113 0.000781864 -0.000160257 0.000132008 -0.000160257 0.000561207 
0.00115632 -0.000509446 0.000138679 -0.000509446 0.000778467 -0.000165904 0.000138679 -0.000165904 0.000544845 
0.00116636 -0.000524888 0.000161147 -0.000524888 0.000789414 -0.000175191 0.000161147 -0.000175191 0.000538053 
0.0011702 -0.000543198 0.000182701 -0.000543198 0.000800036 -0.000185884 0.000182701 -0.000185884 0.000528965 
0.00117155 -0.000561497 0.000211078 -0.000561497 0.00082921 -0.000201566 0.000211078 -0.000201566 0.000531426 
0.00116904 -0.000573118 0.000236341 -0.000573118 0.000863678 -0.000214898 0.000236341 -0.000214898 0.000542526 
0.00116189 -0.000576053 0.000253256 -0.000576053 0.00089686 -0.000225995 0.000253256 -0.000225995 0.000555414 
0.0011458 -0.000561267 0.000259073 -0.000561267 0.000929039 -0.000233695 0.000259073 -0.000233695 0.000573449 
0.00112337 -0.000539765 0.000259392 -0.000539765 0.000962679 -0.000239126 0.000259392 -0.000239126 0.00059614 
0.00109192 -0.000512771 0.000252293 -0.000512771 0.000976134 -0.000246821 0.000252293 -0.000246821 0.00060906 
0.00106365 -0.000482838 0.000242092 -0.000482838 0.000986584 -0.000256009 0.000242092 -0.000256009 0.000622312 
0.00103674 -0.000448635 0.000230622 -0.000448635 0.000997355 -0.000267094 0.000230622 -0.000267094 0.000634722 
0.0010111 -0.000414286 0.000224072 -0.000414286 0.000978395 -0.000284532 0.000224072 -0.000284532 0.000624494 
0.000995622 -0.000376401 0.000220968 -0.000376401 0.000967122 -0.000305638 0.000220968 -0.000305638 0.000617215 
0.000984719 -0.000333962 0.000219904 -0.000333962 0.000971333 -0.000328416 0.000219904 -0.000328416 0.000611901 
0.000969775 -0.000301685 0.000227012 -0.000301685 0.00097128 -0.000346514 0.000227012 -0.000346514 0.000597768 
0.00096829 -0.000278697 0.000232188 -0.000278697 0.000962287 -0.000353592 0.000232188 -0.000353592 0.000595469 
0.000969096 -0.000254772 0.000230836 -0.000254772 0.000961058 -0.000355838 0.000230836 -0.000355838 0.000602482 
0.000964107 -0.000239192 0.000221923 -0.000239192 0.000947896 -0.00034912 0.000221923 -0.00034912 0.00061347 
0.000966361 -0.000229633 0.000208909 -0.000229633 0.000929432 -0.000339666 0.000208909 -0.000339666 0.000630365 
0.000974553 -0.000221092 0.000196756 -0.000221092 0.000908432 -0.000327298 0.000196756 -0.000327298 0.000653822 
0.000978232 -0.000220983 0.000191994 -0.000220983 0.000866125 -0.00030958 0.000191994 -0.00030958 0.000677976 
0.000991757 -0.000225915 0.000187858 -0.000225915 0.00083454 -0.000292035 0.000187858 -0.000292035 0.000700914 
0.00101008 -0.000231625 0.00018591 -0.000231625 0.000814306 -0.000279333 0.00018591 -0.000279333 0.000721583 
0.00102653 -0.000240633 0.000188367 -0.000240633 0.000790187 -0.000276183 0.000188367 -0.000276183 0.00073693 
0.00103731 -0.000234992 0.000181666 -0.000234992 0.000770664 -0.000270841 0.000181666 -0.000270841 0.00074829 
0.00104553 -0.000224829 0.000169317 -0.000224829 0.000756826 -0.000269773 0.000169317 -0.000269773 0.000756159 
0.00104849 -0.000204314 0.000147643 -0.000204314 0.000749674 -0.000270475 0.000147643 -0.000270475 0.000756571 
0.00106592 -0.000179171 0.000120052 -0.000179171 0.000732449 -0.000259649 0.000120052 -0.000259649 0.000774082 
0.00108216 -0.000154939 9.48656e-05 -0.000154939 0.000716148 -0.000250564 9.48656e-05 -0.000250564 0.000788568 
0.0011018 -0.000135259 7.39661e-05 -0.000135259 0.000700032 -0.000241689 7.39661e-05 -0.000241689 0.000804125 
0.00112667 -0.000121273 5.43339e-05 -0.000121273 0.000687324 -0.000232311 5.43339e-05 -0.000232311 0.000819644 
0.00114237 -0.000109306 3.4085e-05 -0.000109306 0.000677623 -0.000224297 3.4085e-05 -0.000224297 0.000830373 
0.0011476 -0.000105012 1.0619e-05 -0.000105012 0.000676579 -0.000218365 1.0619e-05 -0.000218365 0.000837542 
0.00115486 -0.00010256 -1.33187e-05 -0.00010256 0.000675707 -0.00021139 -1.33187e-05 -0.00021139 0.000843219 
0.00115029 -9.79583e-05 -3.86338e-05 -9.79583e-05 0.000679325 -0.00020531 -3.86338e-05 -0.00020531 0.000842203 
0.00115037 -9.8691e-05 -6.48675e-05 -9.8691e-05 0.000683113 -0.000197288 -6.48675e-05 -0.000197288 0.000839085 
0.00114494 -9.1422e-05 -8.84221e-05 -9.1422e-05 0.000684161 -0.000189182 -8.84221e-05 -0.000189182 0.000837614 
0.00114426 -8.71509e-05 -0.000115651 -8.71509e-05 0.000685767 -0.000178383 -0.000115651 -0.000178383 0.000835428 
0.00114507 -7.54518e-05 -0.000142739 -7.54518e-05 0.000690628 -0.000168773 -0.000142739 -0.000168773 0.00084871 
0.00115087 -6.48867e-05 -0.000177286 -6.48867e-05 0.000691809 -0.000156103 -0.000177286 -0.000156103 0.000864757 
0.00115522 -4.96078e-05 -0.000209486 -4.96078e-05 0.000700843 -0.000150866 -0.000209486 -0.000150866 0.000890757 
0.00115876 -3.48088e-05 -0.000243954 -3.48088e-05 0.000707704 -0.00014947 -0.000243954 -0.00014947 0.000921696 
0.00115332 -1.795e-05 -0.000274119 -1.795e-05 0.000719405 -0.000155431 -0.000274119 -0.000155431 0.000950027 
0.00112613 3.40084e-07 -0.0002886 3.40084e-07 0.000741956 -0.000172678 -0.0002886 -0.000172678 0.000967081 
0.00108365 8.31658e-06 -0.000295261 8.31658e-06 0.000749644 -0.000184113 -0.000295261 -0.000184113 0.000969302 
0.00104545 1.66271e-05 -0.000297223 1.66271e-05 0.000756702 -0.000188305 -0.000297223 -0.000188305 0.000956159 
0.00101338 2.26552e-05 -0.000301586 2.26552e-05 0.00075672 -0.00018603 -0.000301586 -0.00018603 0.000951835 
0.000986776 2.5678e-05 -0.000309349 2.5678e-05 0.000749777 -0.000179082 -0.000309349 -0.000179082 0.000964179 
0.000978136 2.86321e-05 -0.000306851 2.86321e-05 0.000749306 -0.000174971 -0.000306851 -0.000174971 0.000975135 
0.000973024 3.09169e-05 -0.000301246 3.09169e-05 0.000752873 -0.000174375 -0.000301246 -0.000174375 0.00100607 
0.000968272 3.00688e-05 -0.000295121 3.00688e-05 0.000756373 -0.000176155 -0.000295121 -0.000176155 0.00105572 
0.000956771 3.77922e-05 -0.000293923 3.77922e-05 0.000768698 -0.000189736 -0.000293923 -0.000189736 0.00107954 
0.000942065 4.28493e-05 -0.000297309 4.28493e-05 0.000774669 -0.000203578 -0.000297309 -0.000203578 0.00110233 
0.000928978 4.20867e-05 -0.000300089 4.20867e-05 0.000775177 -0.000215063 -0.000300089 -0.000215063 0.00113255 
0.000917881 3.70209e-05 -0.000300043 3.70209e-05 0.00077501 -0.000223906 -0.000300043 -0.000223906 0.00116365 
0.00090807 2.86963e-05 -0.000291469 2.86963e-05 0.000784957 -0.000227592 -0.000291469 -0.000227592 0.00117924 
0.000900506 1.97624e-05 -0.000277668 1.97624e-05 0.000801797 -0.000229931 -0.000277668 -0.000229931 0.00119771 
0.000890429 1.49054e-05 -0.00026299 1.49054e-05 0.000821656 -0.000231675 -0.00026299 -0.000231675 0.00121503 
0.000851468 2.83383e-05 -0.000263167 2.83383e-05 0.000817695 -0.000235379 -0.000263167 -0.000235379 0.00120076 
0.000817821 4.27148e-05 -0.000267465 4.27148e-05 0.000823591 -0.000236956 -0.000267465 -0.000236956 0.00116847 
0.000798681 5.24352e-05 -0.000267952 5.24352e-05 0.00084821 -0.000240167 -0.000267952 -0.000240167 0.00114072 
0.000792319 5.68226e-05 -0.000265866 5.68226e-05 0.000887569 -0.000247517 -0.000265866 -0.000247517 0.00112138 
0.000781726 5.43724e-05 -0.000257373 5.43724e-05 0.000930443 -0.000259355 -0.000257373 -0.000259355 0.00110594 
0.000775042 4.78362e-05 -0.000246695 4.78362e-05 0.00097384 -0.000275008 -0.000246695 -0.000275008 0.00109972 
0.000744548 4.45962e-05 -0.000225814 4.45962e-05 0.000989139 -0.000292812 -0.000225814 -0.000292812 0.00107198 
0.000716483 3.85807e-05 -0.000206869 3.85807e-05 0.000991068 -0.000305306 -0.000206869 -0.000305306 0.00104132 
0.000695257 2.77436e-05 -0.000189322 2.77436e-05 0.000979998 -0.000308261 -0.000189322 -0.000308261 0.00100941 
0.000685296 1.46427e-05 -0.000176682 1.46427e-05 0.000969352 -0.000309732 -0.000176682 -0.000309732 0.000982211 
0.000687711 -7.64203e-07 -0.000167829 -7.64203e-07 0.000965085 -0.000310164 -0.000167829 -0.000310164 0.000959398 
0.000703933 -2.01317e-05 -0.000163534 -2.01317e-05 0.000976124 -0.000307244 -0.000163534 -0.000307244 0.00094996 
0.000726137 -4.07255e-05 -0.000162461 -4.07255e-05 0.000996365 -0.000306322 -0.000162461 -0.000306322 0.000952571 
0.000729689 -5.17564e-05 -0.000162532 -5.17564e-05 0.00101065 -0.000309183 -0.000162532 -0.000309183 0.000953768 
0.000718574 -5.25049e-05 -0.000165862 -5.25049e-05 0.00101062 -0.00030737 -0.000165862 -0.00030737 0.000938414 
0.000704349 -5.50553e-05 -0.000167876 -5.50553e-05 0.00100286 -0.000306151 -0.000167876 -0.000306151 0.000913677 
0.000691661 -5.64967e-05 -0.000165521 -5.64967e-05 0.00099268 -0.000304265 -0.000165521 -0.000304265 0.000879991 
0.000695762 -5.5914e-05 -0.000155153 -5.5914e-05 0.000988123 -0.000300163 -0.000155153 -0.000300163 0.000839421 
0.000710555 -5.85778e-05 -0.000141625 -5.85778e-05 0.000989036 -0.000294004 -0.000141625 -0.000294004 0.000802586 
0.00072933 -6.41015e-05 -0.000117361 -6.41015e-05 0.000994154 -0.000289784 -0.000117361 -0.000289784 0.000766043 
0.000750184 -7.33074e-05 -8.86788e-05 -7.33074e-05 0.000998601 -0.000282604 -8.86788e-05 -0.000282604 0.000732139 
0.000762962 -7.60522e-05 -6.52868e-05 -7.60522e-05 0.00100991 -0.000277876 -6.52868e-05 -0.000277876 0.000714009 
0.000760361 -6.97445e-05 -4.95095e-05 -6.97445e-05 0.00102526 -0.000281343 -4.95095e-05 -0.000281343 0.000711958 
0.000767508 -6.22163e-05 -3.1164e-05 -6.22163e-05 0.00104663 -0.000282306 -3.1164e-05 -0.000282306 0.000706234 
0.000753674 -5.5865e-05 -2.70619e-05 -5.5865e-05 0.00105402 -0.000290143 -2.70619e-05 -0.000290143 0.000710316 
0.000745627 -5.50805e-05 -1.73534e-05 -5.50805e-05 0.00106637 -0.000297732 -1.73534e-05 -0.000297732 0.000711103 
0.000735439 -5.89532e-05 -1.40289e-05 -5.89532e-05 0.00106831 -0.000307866 -1.40289e-05 -0.000307866 0.000715435 
0.000721149 -7.05651e-05 -1.13793e-05 -7.05651e-05 0.00106843 -0.000320202 -1.13793e-05 -0.000320202 0.000719371 
0.000709385 -8.69264e-05 -5.81289e-06 -8.69264e-05 0.00107232 -0.000331724 -5.81289e-06 -0.000331724 0.000715696 
0.000700175 -0.000102013 -2.57678e-06 -0.000102013 0.00107926 -0.000339842 -2.57678e-06 -0.000339842 0.000703346 
0.000687793 -0.000123659 7.53281e-06 -0.000123659 0.00109529 -0.00034728 7.53281e-06 -0.00034728 0.00068033 
0.000690935 -0.000130217 1.797e-05 -0.000130217 0.00111028 -0.000340736 1.797e-05 -0.000340736 0.00065132 
0.0007063 -0.000126197 2.20372e-05 -0.000126197 0.00111119 -0.000324429 2.20372e-05 -0.000324429 0.000627183 
0.000729625 -0.000120603 2.51272e-05 -0.000120603 0.00109358 -0.000300571 2.51272e-05 -0.000300571 0.000603984 
0.000756939 -0.000118064 2.78414e-05 -0.000118064 0.00106926 -0.000272133 2.78414e-05 -0.000272133 0.000575379 
0.000774881 -0.000120851 2.85511e-05 -0.000120851 0.00104165 -0.000246194 2.85511e-05 -0.000246194 0.000546652 
0.000783951 -0.00012957 2.82797e-05 -0.00012957 0.0010167 -0.000223904 2.82797e-05 -0.000223904 0.000523645 
0.000804344 -0.00014454 2.2847e-05 -0.00014454 0.00100184 -0.000205948 2.2847e-05 -0.000205948 0.000513039 
0.000827356 -0.000160527 1.26481e-05 -0.000160527 0.00101111 -0.000203241 1.26481e-05 -0.000203241 0.000530939 
0.000857722 -0.000178779 6.96539e-06 -0.000178779 0.00102397 -0.000196544 6.96539e-06 -0.000196544 0.000545163 
0.000869405 -0.000182867 -1.1317e-06 -0.000182867 0.00102633 -0.000198372 -1.1317e-06 -0.000198372 0.000555071 
0.00087543 -0.000182771 -5.00385e-06 -0.000182771 0.00102637 -0.000200295 -5.00385e-06 -0.000200295 0.000559886 
0.000893166 -0.000175678 -2.12475e-05 -0.000175678 0.00102435 -0.000209824 -2.12475e-05 -0.000209824 0.0005889 
0.000901407 -0.00016383 -4.45748e-05 -0.00016383 0.00101363 -0.00022495 -4.45748e-05 -0.00022495 0.000615845 
0.000903 -0.000151535 -6.65607e-05 -0.000151535 0.0010001 -0.00024306 -6.65607e-05 -0.00024306 0.000638002 
0.000929155 -0.000145837 -9.64687e-05 -0.000145837 0.000999415 -0.000265268 -9.64687e-05 -0.000265268 0.000664608 
0.000951782 -0.000139415 -0.000129399 -0.000139415 0.000994565 -0.000289274 -0.000129399 -0.000289274 0.000684058 
0.000964058 -0.000133793 -0.000139567 -0.000133793 0.000984539 -0.000307946 -0.000139567 -0.000307946 0.000690277 

