# vtk DataFile Version 3.0
vtk output
ASCII
DATASET POLYDATA
POINTS 6928 float
13.5 -13.5 9.49997 13.1181 -13.4047 9.1919 12.7412 -13.2986 8.88098 
12.3738 -13.1772 8.56435 12.0232 -13.0247 8.24254 11.684 -12.8503 7.91942 
11.3476 -12.6671 7.598 11.0077 -12.479 7.2832 10.6695 -12.2926 6.96564 
10.3327 -12.1067 6.64627 9.9879 -11.9259 6.3325 9.63186 -11.7735 6.01651 
9.27548 -11.6325 5.69539 8.9245 -11.499 5.36525 8.58875 -11.3333 5.03429 
8.25806 -11.1522 4.7059 7.92816 -10.9507 4.38881 7.59699 -10.7437 4.0766 
7.26497 -10.535 3.76643 6.93327 -10.3276 3.45506 6.60515 -10.1206 3.13966 
6.27552 -9.91039 2.82795 5.91083 -9.66934 2.58799 5.53158 -9.41953 2.37879 
5.12498 -9.16537 2.23709 4.72418 -8.90279 2.09518 4.33239 -8.62384 1.95851 
3.97097 -8.29265 1.86005 3.5096 -8.14586 1.74558 3.03426 -8.05373 1.62078 
13.5 -13.5 9.49997 13.8875 -13.5839 9.80459 14.2875 -13.6013 10.1016 
14.6956 -13.5757 10.3894 15.1258 -13.4446 10.6078 11.5 -3.5 15.5 
11.8387 -3.57476 15.8601 12.1434 -3.64293 16.2501 12.4103 -3.72684 16.6636 
12.6536 -3.82406 17.0895 12.8522 -3.95705 17.5284 13.0199 -4.1003 17.9768 
13.1494 -4.24558 18.4369 13.2376 -4.38558 18.9082 13.3053 -4.51944 19.3852 
11.5 -3.5 15.5 11.1595 -3.40703 15.1464 10.8181 -3.27412 14.807 
10.4772 -3.12004 14.4753 10.1479 -2.9062 14.1656 9.85565 -2.60922 13.8899 
9.57072 -2.29893 13.6206 9.28598 -1.98846 13.3513 8.97033 -1.70844 13.0834 
8.64481 -1.4349 12.8203 8.30051 -1.1692 12.5737 7.93733 -0.924988 12.3321 
7.56229 -0.699883 12.0902 7.18153 -0.484505 11.848 6.78223 -0.305077 11.6064 
6.36514 -0.151497 11.3774 5.92729 -0.0149536 11.1788 5.48243 0.116936 10.9925 
5.02682 0.210983 10.8096 4.58056 0.306381 10.6056 4.14004 0.404755 10.3905 
3.69827 0.492249 10.1735 3.25278 0.575516 9.96224 2.81783 0.651566 9.72836 
2.39075 0.728745 9.48009 1.95788 0.806015 9.24338 1.51308 0.87944 9.02713 
1.05848 0.951492 8.83183 0.603226 1.03313 8.64187 0.148232 1.11554 8.45163 
-0.323097 1.16315 8.29302 -0.801086 1.20012 8.15103 -1.28743 1.16505 8.04517 
-1.77438 1.10045 7.95185 -2.26935 1.03938 7.94411 -2.76601 0.988358 7.97111 
-3.26086 0.968491 8.03857 -3.75488 0.957687 8.115 -4.23228 0.945496 8.26013 
-4.70016 0.933655 8.43606 -5.16162 0.934082 8.62809 -5.62927 0.934189 8.805 
-6.11447 0.931747 8.92483 -6.60347 0.926575 9.02902 -7.09506 0.868027 9.09141 
-7.58342 0.776291 9.14693 -8.03944 0.579102 9.18531 -8.476 0.336777 9.21178 
-8.87883 0.0406494 9.20592 -9.31883 -0.182709 9.28244 -9.76332 -0.390625 9.37837 
-10.2132 -0.580032 9.48655 -10.6707 -0.74733 9.59941 -11.1078 -0.914024 9.77261 
-11.5312 -1.08717 9.97459 -11.9222 -1.2522 10.2384 -12.3014 -1.37816 10.5366 
-12.6722 -1.46885 10.8595 -12.9919 -1.43324 11.2414 -13.3021 -1.38068 11.6299 
-14.5 -17.5 3.49998 -14.7275 -17.9367 3.58674 -14.8944 -18.383 3.73528 
-15.034 -18.8336 3.90102 -15.1463 -19.3 4.04079 -15.253 -19.7727 4.16381 
-15.3741 -20.2471 4.2649 -15.5074 -20.7182 4.36625 -15.6791 -21.1753 4.4727 
-15.8637 -21.6263 4.58465 -16.0593 -22.0743 4.68929 -16.2574 -22.5239 4.78225 
-16.4386 -22.9731 4.88759 -16.5884 -23.4197 5.05531 -16.6876 -23.8502 5.28939 
-16.7574 -24.3056 5.48262 -16.8196 -24.7698 5.65758 -16.8406 -25.2333 5.84261 
-16.8451 -25.6924 6.04064 -16.8125 -26.1061 6.31659 -16.77 -26.4958 6.62698 
-16.7087 -26.8336 6.99046 -16.6166 -27.1638 7.35402 -14.5 -17.5 3.49998 
-14.2725 -17.0633 3.41322 -13.9315 -16.7036 3.35883 -13.5693 -16.3617 3.31558 
-13.1921 -16.0385 3.25822 -12.8178 -15.7222 3.16059 -12.4509 -15.4003 3.05176 
-12.1134 -15.054 2.92481 -11.7683 -14.7141 2.80103 -11.4191 -14.3764 2.68241 
-11.0811 -14.022 2.5827 -10.754 -13.6584 2.47888 -10.4271 -13.2961 2.36993 
-10.0765 -12.9578 2.25791 -9.71663 -12.6254 2.15821 -9.35384 -12.2944 2.06446 
-8.96115 -11.9946 1.98927 -8.55612 -11.7157 1.90038 -8.14899 -11.4442 1.79775 
-7.74977 -11.1708 1.67186 -7.35255 -10.8948 1.54507 -6.94569 -10.6294 1.42735 
-6.53169 -10.3723 1.3154 -6.10278 -10.1427 1.20001 -5.63779 -9.96722 1.15365 
-5.16286 -9.81262 1.13026 -4.69545 -9.65216 1.05816 -4.23486 -9.48179 0.964199 
-3.79073 -9.26864 0.880249 -3.34708 -9.04869 0.810978 -2.88304 -8.86715 0.776554 
-2.41112 -8.70413 0.749912 -1.93111 -8.56499 0.753304 -1.45189 -8.42354 0.771664 
-0.971756 -8.28918 0.805981 -0.487297 -8.16983 0.838425 0.00539398 -8.09556 0.877678 
0.497139 -8.05342 0.950794 0.986908 -8.03084 1.04885 1.43395 -8.02388 1.26723 
1.86062 -8.02546 1.52791 2.26989 -8.01911 1.81507 2.67872 -8.01158 2.10282 
3.13158 -8.05586 2.30469 3.59889 -8.12639 2.4679 4.05225 -8.27865 2.60747 
4.4605 -8.50506 2.77789 4.84342 -8.76736 2.96383 5.24438 -8.9884 3.16441 
5.64711 -9.19985 3.37201 6.0264 -9.40505 3.62421 6.39367 -9.61297 3.89233 
6.73544 -9.82645 4.18834 7.06446 -10.0418 4.49711 7.39912 -10.2496 4.80496 
7.73885 -10.4517 5.11113 8.0871 -10.6441 5.41394 8.42753 -10.8299 5.72943 
8.7646 -11.012 6.05071 9.10136 -11.1741 6.38281 9.43945 -11.3302 6.71645 
9.78548 -11.4807 7.04449 10.1401 -11.6371 7.36038 10.4851 -11.8108 7.67769 
10.8226 -11.9892 8.00064 11.1541 -12.1772 8.32427 11.4743 -12.3749 8.65333 
11.786 -12.5784 8.98711 12.0894 -12.7781 9.33076 12.4174 -12.9659 9.6579 
12.7558 -13.1488 9.9773 13.0798 -13.3426 10.305 13.3957 -13.5408 10.638 
13.6906 -13.7443 10.9867 13.9519 -13.9649 11.3511 14.1974 -14.1952 11.7209 
-4.5 0.5 7.49998 -4.98784 0.462219 7.60286 -5.48238 0.43029 7.66779 
-5.97881 0.397499 7.71756 -6.47586 0.365601 7.76121 -6.97322 0.33445 7.8021 
-7.47101 0.292519 7.82231 -7.9688 0.2481 7.83773 -8.45978 0.199684 7.91582 
-8.94695 0.146782 8.01512 -9.4171 0.0364609 8.1432 -9.88123 -0.0915833 8.27805 
-10.3461 -0.222725 8.40716 -10.8126 -0.352318 8.53214 -11.2612 -0.50679 8.68803 
-11.6993 -0.672264 8.8632 -12.0906 -0.874931 9.0981 -12.4667 -1.08669 9.35054 
-12.8295 -1.30203 9.61885 -13.2028 -1.50999 9.87854 -13.5838 -1.72317 10.1222 
-13.9751 -1.97765 10.2989 -14.3684 -2.25945 10.4219 -14.7602 -2.55479 10.5184 
-15.1543 -2.84925 10.6074 -15.5505 -3.13998 10.6998 -15.9307 -3.45096 10.7894 
-16.2939 -3.78506 10.87 -16.5854 -4.17439 10.986 -16.752 -4.62084 11.1373 
-4.5 0.5 7.49998 -4.01216 0.537781 7.39709 -3.51367 0.551117 7.37578 
-3.0137 0.55304 7.37933 -2.51573 0.531998 7.41706 -2.01892 0.502182 7.46494 
-1.52136 0.519623 7.50719 -1.02449 0.556244 7.54938 -0.535782 0.560333 7.65287 
-0.050499 0.552826 7.77308 0.420303 0.491127 7.92776 0.885216 0.40596 8.09086 
1.32841 0.307419 8.29967 1.76428 0.203583 8.52155 2.19202 0.0917664 8.75507 
2.62064 -0.0163879 8.98871 3.0624 -0.0962601 9.20885 3.5026 -0.174065 9.43284 
3.93388 -0.255959 9.67217 4.36427 -0.337593 9.9132 4.7957 -0.418396 10.1527 
5.23315 -0.509033 10.3772 5.67394 -0.622292 10.5843 6.11157 -0.752541 10.7879 
6.54626 -0.885208 10.9964 6.96348 -1.03631 11.2263 7.36503 -1.20641 11.4705 
7.75818 -1.38518 11.7225 8.13895 -1.57462 11.9854 8.50918 -1.78336 12.2487 
8.85415 -2.02215 12.5205 9.18244 -2.27652 12.7986 9.50264 -2.54036 13.0777 
9.81318 -2.82401 13.348 10.133 -3.09386 13.6214 10.464 -3.33209 13.9098 
10.8015 -3.5491 14.208 11.1493 -3.72791 14.5196 11.5023 -3.87138 14.8434 
11.841 -3.98847 15.1917 12.148 -4.11128 15.5659 12.4051 -4.25066 15.97 
12.6319 -4.40153 16.3893 12.8026 -4.57473 16.8261 12.9239 -4.75877 17.2749 
13.0268 -4.93256 17.7323 13.1066 -5.12164 18.1877 13.1471 -5.37243 18.6144 
13.1618 -5.67657 19.011 13.1145 -6.13779 19.182 13.0584 -6.62227 19.2921 
-6.5 -9.5 3.49998 -6.95296 -9.67851 3.61386 -7.40384 -9.88329 3.68212 
-7.85338 -10.0938 3.74186 -8.30254 -10.3001 3.81706 -8.75223 -10.5079 3.88499 
-9.19534 -10.7142 3.9903 -9.6127 -10.9237 4.16898 -9.99887 -11.1983 4.32193 
-10.369 -11.5105 4.44663 -10.6977 -11.8797 4.52138 -10.9976 -12.2749 4.58242 
-11.2847 -12.6802 4.63986 -11.5489 -13.102 4.68782 -11.8069 -13.5293 4.71603 
-12.1021 -13.9321 4.73255 -12.4272 -14.3112 4.75035 -12.7653 -14.6792 4.76847 
-13.1285 -15.0224 4.77246 -13.5045 -15.352 4.77535 -13.9044 -15.6518 4.76348 
-14.286 -15.9746 4.76448 -14.6579 -16.3087 4.76987 -15.0215 -16.6509 4.79631 
-15.3758 -16.9952 4.871 -15.7209 -17.3452 4.96262 -16.0376 -17.7163 5.07213 
-16.3172 -18.1151 5.18359 -16.5785 -18.5266 5.29488 -16.8032 -18.9587 5.40757 
-17.0391 -19.3842 5.52268 -17.2766 -19.8075 5.64272 -17.4641 -20.2193 5.85212 
-17.6335 -20.6251 6.09009 -17.7635 -21.0506 6.3159 -17.8836 -21.4925 6.5167 
-17.9895 -21.9533 6.67927 -18.0769 -22.4284 6.80772 -18.1586 -22.9073 6.92598 
-18.2022 -23.376 7.09192 -18.228 -23.8381 7.28116 -18.1854 -24.2608 7.54285 
-18.1224 -24.6705 7.82246 -18.0316 -25.0626 8.11915 -17.937 -25.4562 8.41256 
-17.8424 -25.8529 8.7019 -17.7634 -26.2688 8.96736 -17.692 -26.693 9.22237 
-17.6181 -27.1142 9.48044 -6.5 -9.5 3.49998 -6.04704 -9.32149 3.3861 
-5.59023 -9.14959 3.27785 -5.1328 -8.97519 3.17618 -4.67032 -8.78915 3.15013 
-4.20789 -8.59906 3.15429 -3.74348 -8.41877 3.19695 -3.27289 -8.25959 3.2536 
-2.79958 -8.10145 3.28315 -2.32661 -7.94051 3.30332 -1.84897 -7.79714 3.33402 
-1.36784 -7.66765 3.37594 -0.884384 -7.59035 3.47669 -0.401489 -7.52092 3.58621 
0.0843658 -7.46326 3.68927 0.572472 -7.42784 3.79172 1.06398 -7.43047 3.88154 
1.55693 -7.4489 3.96313 2.04903 -7.50075 4.03494 2.5308 -7.58068 4.14218 
2.99747 -7.67497 4.29419 3.45484 -7.77501 4.46931 3.90797 -7.88154 4.65187 
4.31271 -8.05795 4.88508 4.70348 -8.25195 5.12934 5.10169 -8.44328 5.36304 
5.50872 -8.62714 5.58781 5.92391 -8.79449 5.81032 6.32937 -8.96285 6.04942 
6.72984 -9.13205 6.29639 7.11521 -9.3063 6.56309 7.47849 -9.47922 6.85969 
7.83408 -9.65223 7.16567 8.16344 -9.86097 7.47835 8.48136 -10.091 7.78802 
8.79494 -10.3307 8.09496 9.10719 -10.5749 8.3997 9.41705 -10.7974 8.72259 
9.72656 -11.0089 9.0535 10.0365 -11.2116 9.38941 10.3517 -11.4101 9.72289 
10.6674 -11.6091 10.0557 10.9843 -11.8321 10.3713 11.2963 -12.0796 10.6733 
11.603 -12.3413 10.9691 11.8955 -12.6375 11.2461 12.1723 -12.9685 11.4985 
12.4431 -13.3073 11.7472 12.701 -13.6483 12.0064 12.9301 -13.9529 12.3273 
-12.5 -17.5 -0.500015 -12.8981 -17.7577 -0.341438 -13.2611 -18.08 -0.22311 
[...]
CELL_DATA 184
POINT_DATA 6928
SCALARS scalars float
LOOKUP_TABLE default
3005.15 2963.75 3073.68 3183.17 3213.69 3234.95 3197.22 3077.27 2987.95 
2905.12 2908.87 2971.09 3056.45 3092.69 3099.26 3143.05 3126.18 3038.83 
3037.02 3155.75 3324.14 3570.77 3738.96 3860.78 3857.03 3869.29 3928.1 
3931.67 3816.99 3621.02 3005.15 3022.83 3074.32 3131.53 3138.53 1606.15 
1682.3 1734.78 1769.23 1780.12 1787.8 1798.46 1809.64 1820.45 1832.08 
1606.15 1503.86 1399.15 1295.42 1242.25 1226.78 1233.88 1287.43 1348.19 
1379.98 1334.66 1251.68 1139.23 1016.72 989.445 1048.53 1141.45 1194.07 
1285.91 1305.29 1316.29 1282.63 1260.22 1239.21 1193.2 1153.51 1154.54 
1220.46 1266.01 1306.9 1348.88 1409.5 1482.79 1546.29 1612.71 1656.62 
1682.24 1679.18 1658.28 1628.88 1575.96 1516.14 1469.39 1413.47 1369.81 
1340.77 1344.03 1340 1381.41 1425.42 1469.34 1505.56 1532.79 1538.2 
1520.12 1502.91 1458.27 1442.57 1468.47 1472.71 2053.46 2090.76 2128.8 
2134.76 2045.92 1912.58 1757.98 1618.08 1531.54 1481.07 1492.33 1488.17 
1535.21 1567.1 1612 1649.44 1688.19 1726.17 1767.61 1816.61 1857.28 
1858.03 1855.51 2053.46 2066.38 2013.94 1959.38 1899.28 1793.52 1679.76 
1656.18 1593.58 1567.68 1691.35 1796.85 1947.79 2113.39 2194.16 2244.23 
2246.66 2180.77 2194.67 2271.19 2371.33 2475.65 2519.54 2574.36 2481.98 
2388.71 2293.19 2267.29 2267.73 2314.15 2517.61 2744.22 3010.56 3248.8 
3239.39 3224.75 3025.91 2826.04 2809.33 2810.04 2919.06 2958.63 2959.4 
3029.4 3091.28 3166.92 3141.2 3107.5 3077.47 3033.02 2980.23 2870.8 
2892.64 2878.9 2803.5 2774.02 2761.96 2645.49 2591.49 2538.18 2551.79 
2694.13 2835.9 2926.18 2952.75 2985.37 3016.15 2955.56 2924.93 2970.77 
3007.83 3077.41 3200.64 3294.17 3394.64 3513.78 1491.07 1448.64 1389.39 
1385.33 1377.65 1462.42 1545.15 1706.29 1838.94 1966.25 2038.37 2055.17 
2046.74 2022.64 1937.81 1838.26 1662.88 1686.21 1775.38 1847.57 1949.12 
2104.26 2276.43 2429.39 2600.19 2789.08 2941.98 3064.58 3161.65 3180.72 
1491.07 1512.88 1554 1546.3 1545.99 1503.6 1456.08 1398.12 1344.86 
1319.64 1296.24 1311.58 1316.42 1302.94 1248.29 1153.39 1107.83 1126.98 
1205.02 1225.09 1244.09 1215.03 1172.57 1166.45 1147.6 1216.83 1254.25 
1275.32 1345.24 1364.35 1349.17 1304.82 1251.6 1265.94 1286.23 1321.95 
1402.16 1499.67 1602.71 1691.89 1761.03 1814.28 1853.41 1879.8 1908.99 
1954.6 2017.33 2115.75 2219.88 2319.03 2398.3 1997.4 1791.4 1585.08 
1469.69 1350.26 1317.3 1388.51 1467.45 1580.61 1680.78 1735.77 1774.1 
1763.75 1692.47 1661.06 1699.21 1723.66 1809.83 1916.86 1983.49 2080.93 
2152.8 2196.77 2255.56 2316.7 2356.95 2402.42 2449.33 2475.9 2440.8 
2387.97 2296.11 2141.6 1964.43 1852.95 1771.15 1775.28 1786.02 1799.5 
1815.61 1833.81 1847.43 1849.86 1827.04 1803.27 1772.27 1736.74 1742.03 
1777.35 1997.4 2122.18 2186.98 2189.84 2127.33 2070.71 2022.04 1986.45 
1970.66 1932.7 1855.75 1751.66 1591.83 1427.63 1331.44 1269.56 1247.2 
1307.94 1333.06 1383.13 1479.17 1505.41 1671.08 1740.11 1805.61 1882.66 
1916.07 1969.06 1931.3 1865.34 1771.28 1714.32 1822.16 1826.68 1752.32 
1789.36 1786.5 1742.37 1729.82 1855.59 1972.81 2074.43 2188.16 2306.7 
2426.55 2549.25 2699.02 2876.22 2899.12 2825.65 1968.39 2051.48 2028.44 
1969.69 1938.32 1863.36 1758.62 1713.95 1697.64 1690.46 1735.65 1791.81 
1847.45 1919.26 1998.54 2078.53 2152.88 2222.25 2269.13 2322.72 1968.39 
1956.24 1826.15 1677.77 1471.2 1303.97 1224.25 1049.61 1005.65 1041.91 
1072.08 1078.85 1046.67 1117.02 1126.85 1136.94 1113.35 1056.1 995.764 
966.398 938.113 944.507 946.844 994.647 1085.54 1170.77 1273.92 1331 
1355.01 1311.44 1218.19 1115.93 999.196 967.194 979.083 1020.02 1069.52 
1034.7 1031.74 950.175 983.999 1146.38 1294.47 1482.32 1565.12 1647.36 
1621.25 1530.57 1440.62 1263.15 1164.61 1200.91 1190.07 1285.34 1371.77 
1411.01 1434.41 1495.61 1530.88 1568.52 1633.61 1705.33 1782.14 1833.4 
1881.12 1923.49 1954.61 1905.99 1854.66 1807.51 1783.37 1774.59 2822.86 
2944.83 3072.67 3089.1 2999.34 2701.17 2289 1944.74 1684.4 1589.35 
1726.41 1897.21 2270.29 2565.23 2745.2 2899.65 2980.5 2916.53 2851.62 
2765.87 2717.05 2638.91 2554.08 2487.15 2399.67 2326.93 2238.42 2188.75 
2088.37 1908.35 1818.01 1712.01 1534.02 1486.29 1472.91 1427.25 1490.72 
1556.44 1596.5 1628.03 1680.64 1717.85 1725.53 1698.99 1719.83 1811.01 
2822.86 2703.72 2634.53 2593.22 2507.65 2457.59 2385.02 2130.56 2080.91 
1994.8 1917.21 1847.95 1757.68 1825.31 1962.26 2060.39 2167.49 2226.56 
2276.76 2289.54 2276.69 2235.18 2188.8 2126.7 2050.31 1951.82 1841.81 
2130.56 2250.22 2357.96 2449.2 2521.17 2565.55 2583.82 2520.32 2427.07 
2331.83 2280.2 2272.61 2311.65 2411.76 2491.42 2571.7 2654.97 2688.43 
2679.67 2636.59 2459.1 2236 2135.56 2026.58 2170.81 2322.89 2368.59 
2377.13 2219.73 1949.4 1779.2 1717.34 1846.75 2164.03 2496.05 2815.09 
2989.86 3081.89 3116.23 3072.41 2965.17 2826.01 2705.34 2576.63 2520.99 
2694.55 2855.29 3032.11 3181.79 3233.77 3106.06 2887.37 2645.15 2472.03 
2407.96 2511.35 2546.33 2483.25 2324.76 2127.05 1903.23 1708.94 1778.83 
1931.75 2035.3 2105.78 2146.92 2125.93 2095.93 2049.54 2021.63 1994.36 
1967.66 1383.38 1591.59 1778.85 1927.93 2065.12 2116.51 2109.9 2078.55 
2041.47 2020.35 2019.38 1975.85 1899.19 1793.58 1648.64 1513.13 1405.68 
1318.56 1304.52 1282.01 1309.27 1324.88 1308.6 1288.77 1232.11 1166.42 
1142.77 1102.56 1089.8 1168.27 1238.09 1285.68 1383.38 1286.01 1189.22 
1167.51 1156.31 1142.04 1190.27 1249.7 1314.81 1396.64 1540.69 1560.83 
1547.59 1586.33 1676.21 1757.23 1886.56 2011.03 2082.12 2138.49 2127.62 
2106.23 2087.42 2021.82 2017.17 2016.24 2032.8 1888.45 1690.86 1540.69 
1794.62 1898.37 1955.63 2024.23 2012.1 2011.91 2006.48 1912.5 1827.23 
1709.67 1576.22 1515.1 1486.33 1463.58 1581.92 1602.21 1576.09 1540.2 
1495.65 1409.12 1313.72 1249.59 1328.62 1450.38 1551.65 1645.94 1750.21 
1862.37 1964.08 2059.06 2113.78 1454.69 1451.28 1453.85 1484.05 1492.33 
1495.14 1480.84 1454.86 1420.71 1386.85 1336.02 1272.41 1251.88 1245.99 
1272.72 1300.27 1316.02 1334.29 1322.99 1303.97 1315.57 1332.49 1377.14 
1481.28 1575.21 1705.99 1818.21 1911.58 1950.12 1966.33 1973.05 1957.45 
1901.54 1844.15 1786.33 1735.45 1454.69 1448.54 1440.28 1350.27 1251.84 
1114.58 990.677 931.537 864.569 881.378 978.074 1179.36 1371.07 1495.22 
1522.49 1491.62 1455.43 1361.63 1314.29 1257.27 1190.48 1129.41 1002.94 
1141.53 1246.2 1339.41 1415.93 1447.16 1443.9 1421.33 1379.06 1409.02 
1462.87 1525.42 1596.35 1701.66 1812.71 1919.86 2009.36 2095.63 2136.27 
2145.07 2125.04 2033.89 1911.45 1788.06 1703.93 1632.7 1626.57 1619.56 
2169.47 2210.28 2180.92 2109.84 2037.45 1844.15 1685.66 1677.53 1726.88 
1800.02 1802.7 1827.22 1777.55 1658.36 1622.17 1588.5 1510.98 1495.31 
1529.85 1532.84 1525.71 1514.66 1500.95 1577.71 1689.79 1843.76 2016.97 
2169.47 2172.1 2031.95 1854.68 1662.12 1479.56 1407.89 1255.09 1265.41 
1344.22 1488.91 1724.19 1969.63 2139.63 2306.58 2342.38 2336.79 2308.16 
2221.68 2204.7 2190.86 2196.9 2215.77 2206.82 2188.9 2218.11 2296.94 
2508.43 2663.05 2811.27 2900.57 2889.04 2803.59 2777.21 2718.81 2735.15 
2741.82 2777.01 2860.39 2963.65 3166.69 3313.53 3408.53 3411.28 3362.41 
3282.83 3168.64 3015.87 2847.99 2715.14 2578.2 2452.62 2356.99 2236.78 
2095.17 1927.05 1711.95 1518.31 1531.28 1573.25 1635.42 1730.13 1039.53 
1011.04 1029.72 1140.76 1236.31 1315.9 1445.06 1518.64 1593.09 1601.06 
1515.4 1368.64 1186.63 1011.1 844.401 864.293 920.049 1072.1 1218.43 
1322.5 1414.95 1439.19 1440.44 1425.55 1408.85 1420.81 1436.9 1437.32 
1418.67 1385.35 1348.5 1303.23 1289.67 1256.17 1235.46 1211.88 1246.15 
1282.27 1313.72 1336.04 1346.25 1330.99 1329.87 1355.32 1375.89 1475.41 
1570.53 1689.49 1808.65 1880.1 1918.41 1940.47 1944.33 1942.25 1897.89 
1844.51 1797 1757.76 1039.53 1167.5 1258.31 1332.73 1389.58 1404.53 
1387.56 1369.15 1389.75 1430.23 1490 1557.53 1637.25 1735.35 1834.11 
1914.03 2008.77 2104.31 2125.74 2115.56 2057.64 1937.91 1829.74 1746.2 
1655.76 1625.47 1617.9 4047.25 4143.19 4276.82 4464.79 4501.76 4561.53 
4450.11 4312.27 4214.21 4156.79 4089.57 4055.45 4012.3 3905.43 3689.36 
3561.94 3569.98 3662.38 3761.23 3811.42 3847.54 4047.25 3859.9 3769.66 
3666.37 3578.02 3563.55 3430.43 3298.34 3147.99 3002.16 2884.11 2799.13 
2852.54 2847.03 2870.17 2852.54 3036.57 3157.08 3250.47 3304.74 3350.96 
3346.92 3319.97 3263.75 3216.1 3152.51 3051.25 2927.96 2805.31 2845.48 
2970.34 3226.74 3604.33 4089.62 4447.38 4515.31 4567.92 4558.25 4448.68 
4308.14 4224.2 4250.67 4251.87 4316.17 4444.48 4413.24 4315.8 4198.99 
3907.11 3622.64 3376.71 3219.01 3066.94 1892.48 1874.78 1863.09 1835.64 
2054.89 2226.22 2355.67 2419.08 2484.67 2571.87 2623.63 2706.1 2778.43 
2740.92 2728.38 2688.55 2662.5 2643.92 2624 2597.85 2547.92 2494.25 
1892.48 2097.43 2194.65 2174.41 2195.95 2091.11 2127.41 2322.09 2446.89 
2525.03 2622.76 2600.51 2489.87 2360 2377.21 2452.4 2490.34 2463.67 
2477.06 2377.2 2300.21 2179.96 2096.04 2082.53 2087.66 2154.94 2222.85 
2244.74 2215.37 2027.62 1821.4 1623.79 1483.06 1463.15 1421.92 1527.74 
1621.34 1756.98 1895.33 2039.85 2144.64 2191.31 2286.13 2337 2398.22 
2389.75 2365.07 2271.95 2236.32 2303.07 2375.61 2427.3 2483.29 2501.37 
2494.95 2434.49 2394.96 2394.43 2356.37 2210.14 2069.26 2060.59 2072.83 
2101.79 2196.51 2311.67 2409.96 2514.09 2586.57 2626.9 2639.93 2631.25 
1333.55 1321.31 1284.68 1286.26 1329.03 1384.99 1431.01 1447.7 1470.14 
1510.98 1538.64 1545.7 1525.86 1481.68 1419.78 1320.85 1213.64 1134.23 
1043.03 1078.22 1113.76 1212.7 1301.96 1379.38 1449.98 1505.53 1551.63 
1593.51 1615.1 1623.01 1333.55 1486.64 1597.51 1661.16 1712.84 1724.6 
1712.06 1802.07 1901.12 2034.92 2195.24 2316.94 2415.39 2444.62 2453.87 
2384.49 2360.3 2349.3 2396.52 2501.56 2608.9 2697.61 2701.44 2609.33 
2482.28 2315.82 2186.31 2138.45 2113.96 2138.54 2118.52 2122.22 2089.12 
2165.76 2140.82 2161.47 2296.03 2397.16 2507.65 2529.57 2517.7 2446.17 
2289.95 2233.77 2152.24 2040.57 2226.75 2318.89 2354.02 2435.22 2502.77 
2550.47 2552.41 2602.48 2696.35 2746.3 2796.27 2892.4 2998.97 3133.79 
3256.22 3299.42 3150.66 2497.41 2396.72 2373.23 2457.89 2542.85 2579.32 
2628.54 2725.07 2827.25 2963.52 3064.44 3025.03 2992.41 2955.03 2894.6 
2882.92 2884.48 2927.37 2935.18 2902.93 2497.41 2627.56 2749.83 2887.88 
2976.22 3066.65 3093.54 3174.97 3238.77 3251.42 3200.19 3160.18 3200.18 
3113.1 2911.26 2782.6 2626.61 1308.39 1369.57 1379.06 1334.23 1242.05 
1138.48 1040.89 981.398 1029.51 1140.17 1237.7 1306.15 1329.56 1307.56 
1279.5 1210.5 1223.34 1209 1210.19 1196.18 1145.19 1207.37 1257.93 
1306.52 1365.26 1448.07 1523.14 1595.57 1659.09 1688.75 1708.31 1685.81 
1659.37 1602.96 1519.91 1462.39 1414.6 1382.49 1362.74 1363.31 1375.15 
1380.34 1308.39 1270.24 1226.01 1205.1 1304.93 1403.17 1501.66 1584.19 
1634 1658.18 1646.21 1656.12 1651.05 1631.67 1636.53 1640.9 1643.4 
1713.06 1776.81 1837.17 1897.99 1932.25 2353.85 2390.06 2428.25 2353.85 
2232.95 2114.59 1998.57 1890.69 1799 1686.25 1560.06 1460.79 1389.99 
1391.18 1409.58 1525.5 1599.86 1606.68 1644.29 1645.89 1554.31 1520.54 
1566.85 1605.09 1616.24 1595.16 1631.48 1572.55 1551 1542.72 1493.67 
1474.78 1421.33 1344.11 1261.99 1194.99 1152.49 1160.05 1241.81 1332.08 
1373.07 1320.1 1361.11 1425.23 1488.72 1589.06 1620.92 1588.05 1506.06 
1406.74 1317.06 1253.99 1252.52 1225.83 1313.61 1378.19 1472.19 1558.8 
1653.09 1761.24 1873.61 1956.63 2015.99 2071.34 2140.14 2192.23 2255.94 
2335.29 2436.62 2526.39 2613.89 2708.44 2770.1 2830.31 2900.6 2967.73 
3052.39 3150.02 3060 2880.51 2717.69 2489.04 2260.74 2076.26 1902.71 
1824.94 1769.55 1737.7 1735.44 1751.78 1775.84 1802.8 1849.47 1887.12 
1936.69 1988.79 2035.36 2071.97 1588.92 1629.05 1659.31 1699.59 1739.43 
1788.05 1819.35 1841.95 1845.97 1847.2 1588.92 1563.03 1525.33 1519.89 
1514.72 1545.11 1620.86 1716.06 1858.58 1991.79 2073.3 2156.65 2177.92 
2135.25 2130.5 2091.42 2054.26 2016.74 1922.14 1811.77 1767.29 1719.59 
1703.83 1769.32 1898.33 2105.58 2304.74 2476.9 2529.83 2550.57 2503.11 
2462.78 2520.3 2605.68 2692.99 2811.12 2873.26 2910.02 2814.45 2665.01 
2517.01 2426.38 2407.4 2435.22 2627.07 2801.61 2995.54 3149.8 3119.71 
3070.15 2868.06 2669.87 2605.06 2531.36 2636.8 2683.48 2716.04 2750.7 
2789.31 2812.21 2801.02 2824.76 2834.58 2895.31 2995.81 3005.4 2988.96 
2890.69 2725.7 2681.34 2602.9 2489.58 2571.96 2683.91 2732.87 2803.26 
2862.73 2889.53 2884.31 2887.41 2866.24 2910.42 2973.35 3016 3063.41 
3161.28 3271.47 3409.01 3525.62 2662.31 2632.34 2661.54 2737.48 2840.61 
2946.15 2985.79 2662.31 2626.93 2573.58 2496.99 2398.55 2272.63 2131.68 
1949.04 1870.09 1895.1 1987.09 2189.19 2277.84 2247.18 2291.96 2247.43 
2081.72 2285.53 2518.14 2675.89 2814.12 2847.65 2883.34 2856.39 2809.06 
2757.46 2697.42 2683.11 2598.79 2675.12 2681.24 2793.99 2914.56 2930.07 
2902.46 2750.86 2571.53 2366.74 2151.86 1993.5 1899.73 1814.05 1837.2 
1859.28 1928.14 1908.46 1866.57 1759.53 1765.83 1769.91 1730.96 1792.86 
1772.06 1720.36 1632.84 1543.68 1464.4 1372.11 1390.61 1469.6 1521.64 
1624.96 1728.6 1794.76 1885.65 1931.95 1958.23 1984.89 2012.86 1984.38 
1942.23 1790.61 1627.39 1484.46 1356.05 1329.73 1350.33 1391.98 1460.86 
1509.13 1566.01 1611.02 1656.55 1695.73 1744.8 1799.43 1854.38 1863.54 
1876.45 1887.19 1876.55 1838.98 1802.35 1801.1 1827.95 1858.52 1871.06 
1863.54 1835.33 1811.13 1796.08 1787.56 1824.03 1883.05 2039.74 2244.18 
2435.33 2583.03 2640.74 2646.2 2623.2 2581.5 2520.36 2456.38 2402.41 
2339.24 2264.44 2199.2 2110.24 2001.74 1886.18 1781.91 1717.12 1721.06 
1738.01 1743.18 1705.21 1643.26 1537.8 1424.65 1320.73 1256.71 1217.12 
1162.48 1093.66 1068.83 1020.56 997.249 1010.67 1026 1069.36 1158.68 
1266.24 1343.79 1440.68 1544.13 1657.5 1763.91 1788.4 1801.35 1789.95 
1751.84 1709.29 1653.5 1612.12 1598.28 1591.34 1600.95 1607.45 1620.02 
1544.83 1455.33 1333.1 1257.07 1262.34 1264.29 1328.87 1379.62 1448.34 
1479.5 1437.32 1370.7 1242.08 1235 1284.95 1356.89 1418.09 1461.97 
1511.05 1534.08 1557.5 1681.76 1817.76 1963.36 2076.35 2153.07 2207.15 
2256.14 2272.65 4507.79 4478.66 4471.88 4519.54 4502.94 4478.17 4385.35 
4275.58 3975.19 3721.76 3580.48 3427.58 3343.61 3414.85 3515.52 3545.58 
3566.67 3484.63 3415.05 3390.68 3391.69 3422.76 3458.43 3481.27 3447.57 
3333.6 4507.79 4317.77 4225.91 4180.23 4160.62 4003.23 3789.85 3598.84 
3417.57 3243.77 3068.38 1556.7 1592.16 1627.42 1683.97 1744.55 1840.68 
1917.8 1923.17 1827.11 1665.8 1480.7 1325.31 1299.84 1245.58 1340.77 
1412.95 1511.87 1610.59 1708.15 1819.94 1935.4 2017.15 2088.6 2146.7 
2214.74 2272.48 2334.15 2402.63 2493.69 2571.9 2646.21 2729.32 2801.05 
2861.71 2924.19 2981.57 3060.88 3146.84 3137.03 2950.15 2795.13 2571.16 
2335.55 2139.32 1959.75 1867.58 1810.07 1770.92 1764.1 1774.92 1797.08 
1827.59 1858.94 1556.7 1516.74 1439.1 1288.73 1180.65 1152.56 1134.61 
1197.51 1291.01 1339.25 1378.97 1449.32 1484.91 1600.55 1699.51 1710.76 
1785.59 1798.32 1807.98 1783.99 1703.94 1734.05 1744.34 1816.71 1836.13 
1766.74 1715.03 1681 1604.92 1561.43 1725.3 1856.51 1958.94 2061.62 
2181.15 2310.18 2446.99 2613.28 2773.37 2852.39 2870.81 2781.03 2783.48 
2959.95 3061.5 3128.54 3116.79 3007.12 2846.23 2750.57 2670.92 2723.51 
2731.67 2753.13 2715.48 2625.97 2526.12 2388.86 2435.25 2478.21 2704.07 
2935.9 3047.44 3099.62 2947.3 2755.53 2599.29 2442.23 2456.81 2556 
2753.85 2978.25 3173.19 3325.63 3414.79 3463.72 3418.91 3352.06 3293.69 
3263.2 3262.02 3318.78 3434.39 3497.94 3424.38 3256.24 3019.47 2716.13 
2485.84 2369.72 2312.63 2324.64 2438.93 2532.69 2596.6 2637.2 2680.4 
2728.08 2768.76 2795.64 2845.06 2849.12 2840.83 2894.94 2889.53 2866.77 
2817.49 2710.08 2783.48 2689.08 2593.96 2449.66 2626.27 2744.29 2767.26 
2775.01 2777.27 2763.93 2727.06 2704.84 2776.53 2855.1 2947.57 3012.76 
3060.31 3147.7 3226.24 3338.17 3517.65 2929.48 2985.41 3031.52 2883.89 
2714.84 2576.33 2429.72 2476.51 2543.06 2700.46 2871.06 3047.26 3171.63 
3238.48 3241.56 3154.12 3088.76 3033.14 3006.42 3019.95 3066.11 3178.57 
3143.22 3050.45 2914.95 2636.55 2371.91 2210.15 2159.95 2131.46 2195.12 
2305.93 2389.67 2438.53 2496.04 2535.42 2577.23 2628.98 2680.67 2714.14 
2729.41 2791.31 2848.49 2828.72 2774.5 2688.36 2557.06 2929.48 2721.11 
2498.88 2438.1 2384.48 2493.07 2570.54 2633.89 2651.65 2651.37 2663.73 
2657.43 2735.19 2818.33 2967.71 3098.53 3106.88 3084.03 2977.17 2809.3 
2723.04 2624.36 2499.12 2666.29 2781.72 2801.42 2810.77 2814.4 2797.7 
2763.75 2742.51 2799.7 2877.6 2970.06 3025.08 3071.14 3159.02 3225.11 
3336.82 3515.28 2751.19 2843.96 2979.84 3230.47 3403.93 3596.41 3787.51 
3930.77 4068.87 4231.03 2751.19 2744.4 2646.3 2499.17 2436.97 2377.51 
2266.72 2194.78 2103.05 2043.66 1985.26 1911.82 1783.09 1668.92 1535.51 
1457.9 1405.02 1484.37 1564.36 1591.36 1658.12 1653.57 1670.68 1637.2 
1545.91 1436.57 1405.21 1562.41 1642.93 1709.27 1749.71 1754.14 1751.96 
1684.14 1601.85 1457.11 1540.17 1691 1757.63 1762.4 1737.38 1666.71 
1587.03 1540.82 1612.13 1753.69 1826.82 1827.29 1788.85 1722.83 1639.65 
1656.9 1707.32 1771.29 1801.33 1803.25 1798.25 1870.7 1930.15 1974.67 
1998.67 2026.96 2052.49 2095.07 2146.56 2152.31 2188.93 2269.78 1818.62 
1789.93 1760.55 1742.53 1750.1 1760.51 1799.52 1816.4 1791.84 1744.24 
1818.62 1836.06 1850.51 1856.36 1877.31 1906.54 1934.56 1958.18 1998.15 
2056.49 2159.46 2303.04 2481.93 2650.8 2737.56 2777.7 2640.43 2503.74 
2375.5 2303.52 2259.13 2207.07 2188.14 2137.16 2010.88 1888.73 1793.93 
1660.51 1503.36 1432.87 1370.13 1349.88 1282.02 1503.85 1662.73 1679.08 
1742.47 1767.93 1790.89 1793.84 1766.76 1802.82 1761.51 1706.2 1595.36 
1523.1 1487.05 1543.43 1616.52 1723.6 1893.62 2078.54 2265.23 2457.66 
2496.79 2524.4 2428.7 2311.02 2306.08 2291.34 2455.94 2567.55 2691.57 
2822.72 2922.49 3095.33 3166.9 3274.68 3341.02 3338.37 3204.28 2983.46 
2798.09 2627.62 2427.77 2604.13 2720.96 2691.88 2688.43 2622.76 2452.69 
2343.94 2225.64 2390.81 2568.15 2715.75 2830.32 2858.25 2853.32 2835.13 
2823.18 2871.26 2975.27 3077.91 3139.39 3230.14 2332.32 2252.26 2183.02 
2132.63 2332.32 2367.64 2402.92 2384.85 2285.34 2173.38 2064.15 1942 
2037.44 2133.74 2204.58 2236.58 2204 2083.09 1945 1749.25 1555.3 
1409.99 1287.88 1215.17 1182.55 1148.38 1170.04 1207.67 1195.67 1172.29 
1138.39 1106.29 1104.8 1115.95 1171.42 1220.92 1320.57 1472.22 1608.32 
1750.82 1890.12 2042.75 2130.94 2126 2025.37 1869.85 1745.73 1627.78 
1604.73 1633.98 1684.58 1760.42 1758.57 1671.3 1585.59 1536.13 1527.84 
1543.02 1603.74 1635.66 1720.66 1729.92 1769.53 2876.49 2860.29 2844.06 
2841.95 2850.91 2761.92 2631.53 2603.96 2876.49 2882.42 2890.75 2931.65 
3119.06 3354.2 3675.36 3919.17 4054.16 4191.15 4216.91 4198.41 4254.95 
4266.48 4210.86 4120.56 3962.95 3829.55 3721.47 3685.18 3711.44 3704.3 
3491.64 3308.15 3158.71 2906.33 2674.03 2398.77 1225.54 1227.81 1242.88 
1249.23 1256.31 1269.19 1334.4 1426.32 1534.5 1630.8 1676.43 1633.46 
1538.63 1408.15 1263.65 1181.89 1214.57 1347.49 1559.11 1225.54 1252.44 
1283.02 1328.61 1393.48 1452.39 1505.18 1521.4 1537.74 1566.12 1596.14 
1667.42 1749.43 1830.24 1858.41 1885.99 1883.76 2713.7 2661.51 2654.96 
2680.54 2696.05 2642.64 2646.15 2538.19 2425.46 2298.11 2166.15 2161.57 
2152.04 2274.85 2397.11 2402.55 2377.55 2179.62 1924.31 1706.02 1553.88 
1509.07 1464.43 1513.24 1620.65 1729.53 1883.85 1996.85 2158.37 2193.81 
2245.44 2290.22 2341.34 2378.72 2361.24 2293.14 2207.88 2220.23 2279.53 
2317.77 2358.95 2394.69 2403.79 2365.71 2310.66 2322.85 2307.25 2214.4 
2115.74 2123.5 2137.03 2155.64 2205.54 2308.27 2403.45 2499.86 2584.68 
2625.12 2650.92 2635.53 2713.7 2811.05 2824.24 2733.68 2643.81 2511.21 
2376.22 2370.06 2435.03 2457.24 2478.36 2380.74 2219.98 2097.54 2014.7 
1945.89 2188.56 2373.95 2502.08 2558.98 2621.94 2691.92 2703.69 2748.64 
2831.96 2824.57 2838.5 2816.04 2785.08 2753.02 2745.82 2726.31 2672.72 
2556.56 1519.55 1534.69 1567.26 1669.12 1800.22 1938.75 2072.26 2114.2 
2129.23 2114.59 2086.17 2110.08 2152.81 2236.8 2320.88 2367.03 2354.69 
2286.05 2154.2 1995.61 1931.2 1846.94 1851.66 1819.15 1766.79 1735.21 
1740.18 1792.74 1825.03 1798.91 1725.91 1704.32 1759.7 1791.94 1884.57 
1988.32 2053.47 2139.75 2208.09 2254.95 2310.43 2377.22 2423.1 2469.55 